BDEPEND=virtual/fortran
DEFINED_PHASES=compile install prepare setup
DEPEND=virtual/mpi[fortran] virtual/fortran
DESCRIPTION=a general purpose molecular dynamics simulation package
EAPI=7
HOMEPAGE=http://www.ccp5.ac.uk/DL_POLY_CLASSIC/
INHERIT=fortran-2 toolchain-funcs
IUSE=doc
KEYWORDS=~amd64
LICENSE=BSD
RDEPEND=virtual/mpi[fortran] virtual/fortran
SLOT=0
SRC_URI=https://gitlab.com/DL_POLY_Classic/dl_poly/-/archive/RELEASE-1-10/dl_poly-RELEASE-1-10.tar.gz -> dl_poly-1.10.tar.gz
_eclasses_=toolchain-funcs	7e440a20ac11dece04e3334622e6e5da	flag-o-matic	a7afe42e95fb46ce9691605acfb24672	fortran-2	ae6d43513003405bd4a48698fc20370a
_md5_=b439ecdfdeb81c75368b574eb920db0a
